ITEM: TIMESTEP
0
ITEM: NUMBER OF ATOMS
2800
ITEM: BOX BOUNDS pp pp pp
-20	20
-20	20
-20	20
ITEM: ATOMS index type x y z
     1	1	-19.1699	-8.04955	 10.8528
     2	2	-18.1718	-8.13244	 11.3196
     3	2	 -18.182	-7.74359	 10.4638
     4	2	-19.7632	-7.51726	  11.618
     5	2	-19.7734	-7.12841	 10.7623
     6	2	-19.5595	-9.08224	 10.9045
     7	2	-19.5696	-8.69338	 10.0487
     8	1	-0.0597194	 13.2765	 9.95216
     9	2	0.945008	 13.2541	 10.4114
    10	2	0.935251	 13.2713	 9.47163
    11	2	-0.542686	 14.1405	 10.4431
    12	2	-0.552442	 14.1577	 9.50327
    13	2	-0.566845	  12.409	 10.4117
    14	2	-0.576602	 12.4261	 9.47188
    15	1	 10.4212	 8.36832	-12.0775
    16	2	 11.2947	 8.19305	-11.4239
    17	2	  11.479	 8.19495	-12.3456
    18	2	 9.99394	 9.30727	-11.6817
    19	2	 10.1783	 9.30917	-12.6034
    20	2	 9.69856	 7.60179	-11.7443
    21	2	 9.88287	 7.60369	 -12.666
    22	1	 7.41439	-13.9849	-16.4664
    23	2	 8.26323	-13.3098	-16.2551
    24	2	 7.95325	-13.2968	-17.1425
    25	2	 6.66807	-13.6986	-15.7036
    26	2	 6.35808	-13.6856	-16.5909
    27	2	 7.77686	-14.9658	-16.1095
    28	2	 7.46687	-14.9527	-16.9969
    29	1	 0.48769	-6.55714	-19.8421
    30	2	 1.51752	-6.38121	-19.4824
    31	2	   1.433	-6.49862	 19.5888
    32	2	-0.0754646	-5.70384	 -19.423
    33	2	-0.15999	-5.82126	 19.6482
    34	2	0.147799	-7.41024	-19.2276
    35	2	0.0632739	-7.52766	 19.8436
    36	1	 8.87021	-18.7753	 4.50104
    37	2	 9.95513	-18.9838	 4.52109
    38	2	  9.4952	-19.3296	  3.7778
    39	2	 8.82184	-17.6773	 4.61453
    40	2	 8.36191	-18.0231	 3.87124
    41	2	 8.52357	-19.1462	 5.48245
    42	2	 8.06364	 -19.492	 4.73916
    43	1	 8.58303	 1.63524	  16.711
    44	2	 9.39648	  1.8363	 17.4312
    45	2	 9.67783	 1.58604	 16.5699
    46	2	 7.97181	 2.55455	 16.7571
    47	2	 8.25316	  2.3043	 15.8959
    48	2	 7.95877	0.890244	 17.2365
    49	2	 8.24012	0.639992	 16.3752
    50	1	-5.06637	 11.1492	-14.3132
    51	2	-4.02962	 11.1509	 -13.931
    52	2	-4.11455	 11.2866	-14.8573
    53	2	-5.57032	 11.9013	-13.6798
    54	2	-5.65525	  12.037	-14.6061
    55	2	-5.47178	 10.1917	-13.9394
    56	2	 -5.5567	 10.3274	-14.8656
    57	1	-2.63944	 13.0433	-2.32667
    58	2	-1.73789	 13.2256	-1.71441
    59	2	-1.57395	 13.0293	-2.61895
    60	2	 -3.2544	 13.9431	-2.14497
    61	2	-3.09045	 13.7468	-3.04951
    62	2	-3.17195	 12.2556	-1.76383
    63	2	  -3.008	 12.0593	-2.66837
    64	1	 6.01589	-17.3775	 0.52553
    65	2	 6.83715	-16.8603	 1.05366
    66	2	 7.10732	-17.4404	0.365149
    67	2	 5.35683	-16.5486	0.210173
    68	2	   5.627	-17.1287	-0.478336
    69	2	 5.44843	-17.8534	 1.34552
    70	2	  5.7186	-18.4335	0.657012
    71	1	0.865886	-19.5285	 12.2089
    72	2	 1.88814	-19.3127	 12.5686
    73	2	 1.75557	-19.1938	 11.6456
    74	2	0.231314	-18.9003	 12.8597
    75	2	0.0987461	-18.7813	 11.9368
    76	2	0.677057	 19.4491	 12.5829
    77	2	0.544488	 19.5681	   11.66
    78	1	-16.3816	 2.38593	-7.23056
    79	2	 -15.602	 2.11993	-6.49417
    80	2	-15.2913	 2.27166	-7.36826
    81	2	-16.8932	 3.24377	-6.75806
    82	2	-16.5825	  3.3955	-7.63215
    83	2	-17.1158	 1.56651	 -7.1283
    84	2	-16.8051	 1.71824	 -8.0024
    85	1	 13.1473	-16.9258	-15.4406
    86	2	 14.1361	-17.2826	-15.1003
    87	2	 13.9803	-17.3573	-16.0243
    88	2	 13.0968	-15.8984	-15.0371
    89	2	 12.9411	-15.9732	-15.9611
    90	2	 12.4425	-17.4842	-14.7985
    91	2	 12.2868	 -17.559	-15.7225
    92	1	 1.90345	-15.1218	 5.05149
    93	2	 2.94387	-15.0364	 5.41359
    94	2	 2.84394	-15.0293	 4.47894
    95	2	 1.38224	-14.3073	 5.58604
    96	2	 1.28231	-14.3003	 4.65139
    97	2	 1.53412	-16.0324	  5.5568
    98	2	  1.4342	-16.0253	 4.62215
    99	1	  14.274	 10.6752	-12.0421
   100	2	 15.3591	  10.628	-11.8392
   101	2	 15.1148	 10.5042	-12.7384
   102	2	 13.9769	 11.6449	-11.6035
   103	2	 13.7326	 11.5211	-12.5027
   104	2	 13.8525	 9.93838	-11.3348
   105	2	 13.6081	 9.81459	 -12.234
   106	1	-8.16153	 3.90329	 10.1859
   107	2	-7.41019	 4.69919	 10.0345
   108	2	-7.62703	 4.20269	 9.26636
   109	2	-9.00707	 4.43968	  10.653
   110	2	-9.22391	 3.94317	 9.88489
   111	2	-7.74208	 3.31576	 11.0224
   112	2	-7.95892	 2.81926	 10.2542
   113	1	-13.3994	-1.30387	-6.97953
   114	2	-12.3246	-1.29521	-6.72309
   115	2	-12.5192	-1.47945	-7.62408
   116	2	-13.7544	-0.323898	-6.61288
   117	2	 -13.949	-0.508135	-7.51387
   118	2	-13.8271	-2.01614	-6.25115
   119	2	-14.0217	-2.20038	-7.15214
   120	1	 12.8442	-14.7484	-16.2616
   121	2	 13.8666	-15.1525	-16.1506
   122	2	 13.4682	-15.2975	-16.9896
   123	2	  12.959	-13.6881	-15.9727
   124	2	 12.5606	 -13.833	-16.8117
   125	2	 12.3046	-15.1871	 -15.403
   126	2	 11.9062	 -15.332	-16.2419
   127	1	 17.7704	 3.81758	-4.63542
   128	2	  18.702	 4.12075	-4.12437
   129	2	 18.7185	 4.19247	-5.06149
   130	2	 16.9968	 4.42424	-4.13117
   131	2	 17.0133	 4.49596	-5.06828
   132	2	 17.5878	 2.80018	-4.24506
   133	2	 17.6043	  2.8719	-5.18217
   134	1	 13.0449	 3.48524	-1.74782
   135	2	 13.9798	 3.44917	-1.15995
   136	2	 14.0885	 3.36233	 -2.0896
   137	2	 12.5739	 4.42795	 -1.4157
   138	2	 12.6826	  4.3411	-2.34535
   139	2	 12.4181	 2.70886	-1.27333
   140	2	 12.5267	 2.62201	-2.20298
   141	1	 16.1133	-4.11342	 3.89487
   142	2	 17.2048	-4.16335	 4.05908
   143	2	 16.9418	-3.94582	 3.18324
   144	2	 15.7722	-3.41066	 4.67629
   145	2	 15.5091	-3.19312	 3.80045
   146	2	 15.7574	-5.09255	 4.26298
   147	2	 15.4944	-4.87502	 3.38715
   148	1	-18.4287	-19.9037	 3.60805
   149	2	-17.4138	-19.9925	 4.03584
   150	2	-17.4463	-19.8831	 3.10279
   151	2	-18.8787	-19.0818	 4.19356
   152	2	-18.9111	-18.9724	 3.26051
   153	2	 -18.945	  19.199	 3.99434
   154	2	-18.9775	 19.3084	 3.06129
   155	1	 -7.7816	-16.8083	-16.8155
   156	2	-7.25694	-16.9417	-15.8522
   157	2	-6.72296	-17.0552	-16.6175
   158	2	-8.24962	-15.8127	-16.7124
   159	2	-7.71564	-15.9262	-17.4776
   160	2	-8.63922	-17.5002	-16.7339
   161	2	-8.10524	-17.6137	-17.4992
   162	1	-18.4016	-11.4019	 10.9532
   163	2	 -17.633	-11.3797	 11.7467
   164	2	-17.3031	-11.4899	 10.8734
   165	2	-18.9706	-10.4708	 11.1267
   166	2	-18.6408	-10.5809	 10.2534
   167	2	-19.0961	-12.1899	 11.2962
   168	2	-18.7662	   -12.3	 10.4229
   169	1	 5.45965	-11.0051	-7.40292
   170	2	 6.23358	-10.9001	-6.62133
   171	2	 6.52432	-11.3001	-7.42071
   172	2	 5.06537	-9.97822	-7.50758
   173	2	  5.3561	-10.3783	-8.30696
   174	2	 4.64389	-11.5369	 -6.8808
   175	2	 4.93462	-11.9369	-7.68018
   176	1	 15.1966	-10.6944	-18.2761
   177	2	 16.2437	 -10.577	-17.9432
   178	2	 16.0518	-10.2218	-18.7921
   179	2	 14.6163	-10.2594	-17.4425
   180	2	 14.4244	 -9.9042	-18.2914
   181	2	 15.0177	-11.7794	-18.1692
   182	2	 14.8258	-11.4243	-19.0181
   183	1	-3.29963	-5.96167	 15.1239
   184	2	-2.26308	-5.78968	  14.782
   185	2	-2.92611	-5.66282	 14.1278
   186	2	-3.38433	-5.30931	 16.0116
   187	2	-4.04736	-5.18245	 15.3575
   188	2	-3.25695	-6.97632	 15.5592
   189	2	-3.91997	-6.84946	 14.9051
   190	1	 3.91347	-14.6175	0.538665
   191	2	 4.95738	-14.8316	0.830706
   192	2	 4.82849	-14.6393	-0.0803291
   193	2	 3.61615	-13.8132	 1.23549
   194	2	 3.48726	-13.6208	0.324458
   195	2	  3.3602	-15.4962	0.916349
   196	2	 3.23131	-15.3038	0.00531364
   197	1	 -18.984	0.256313	-7.96515
   198	2	-18.0198	0.277639	-7.42586
   199	2	-17.9705	-0.000601617	-8.32237
   200	2	-19.3825	 1.27521	-7.81053
   201	2	-19.3331	0.996968	-8.70704
   202	2	-19.6238	-0.366548	-7.31428
   203	2	-19.5744	-0.644789	 -8.2108
   204	1	 2.30313	-19.9891	 -10.317
   205	2	 3.40061	-19.9945	-10.1889
   206	2	 3.10098	-19.8264	-11.0639
   207	2	 1.96361	-19.2632	-9.55631
   208	2	 1.66398	-19.0951	-10.4313
   209	2	 1.99461	 19.0382	-9.89323
   210	2	 1.69498	 19.2063	-10.7682
   211	1	-8.28808	 9.90328	-0.99471
   212	2	-7.41315	 9.64918	-0.369545
   213	2	-7.29731	  9.5154	-1.29274
   214	2	-8.51926	 10.9415	-0.695614
   215	2	-8.40342	 10.8077	-1.61881
   216	2	-9.10559	  9.3198	-0.534183
   217	2	-8.98975	 9.18602	-1.45738
   218	1	-6.41169	 14.6597	 19.1528
   219	2	-5.36065	 14.8367	 19.4441
   220	2	-5.47939	 14.4135	 18.6132
   221	2	-6.87007	 15.6612	 19.2399
   222	2	-6.98881	 15.2381	  18.409
   223	2	-6.82623	 14.1158	-19.9793
   224	2	-6.94497	 13.6927	 19.1897
   225	1	-2.36905	-15.7627	 19.0832
   226	2	-1.91843	-16.2914	 19.9425
   227	2	-1.31395	-16.0317	 19.2711
   228	2	-2.92625	-14.9358	 19.5594
   229	2	-2.32177	-14.6762	  18.888
   230	2	-3.16918	-16.4503	 18.7549
   231	2	 -2.5647	-16.1906	 18.0835
   232	1	 3.12546	-1.38234	 0.79188
   233	2	 3.69595	-0.605002	  1.3315
   234	2	 4.10664	-0.934069	0.552621
   235	2	   2.138	-0.910668	0.639169
   236	2	 2.54869	-1.23974	-0.13971
   237	2	 2.92639	-2.13773	 1.57329
   238	2	 3.33708	 -2.4668	 0.79441
   239	1	-1.41877	-6.50967	-17.2761
   240	2	-0.394354	 -6.4776	-16.8633
   241	2	-0.450522	-6.41075	-17.7992
   242	2	-1.94193	-5.71391	-16.7158
   243	2	 -1.9981	-5.64705	-17.6518
   244	2	-1.83577	-7.43779	-16.8453
   245	2	-1.89193	-7.37094	-17.7813
   246	1	 3.44088	 1.75682	 8.74411
   247	2	 4.21304	0.979113	 8.88495
   248	2	  3.9681	 1.14233	 7.99222
   249	2	 3.85695	 2.62655	 9.28385
   250	2	 3.61201	 2.78976	 8.39112
   251	2	 2.62006	 1.41998	 9.40263
   252	2	 2.37511	 1.58319	  8.5099
   253	1	 2.52763	 -14.132	-5.97374
   254	2	 3.36597	-14.0991	-5.25472
   255	2	   3.579	-14.4468	-6.10165
   256	2	  2.1534	-13.0923	-5.97309
   257	2	 2.36642	-13.4401	-6.82002
   258	2	 1.74397	-14.6828	-5.42303
   259	2	   1.957	-15.0306	-6.26996
   260	1	 6.93868	-18.8328	0.493366
   261	2	 7.96067	-19.0278	0.865384
   262	2	 7.88994	-18.9059	-0.0639911
   263	2	 6.60592	-17.9759	 1.10646
   264	2	 6.53519	 -17.854	 0.17708
   265	2	 6.35553	-19.6775	0.902322
   266	2	  6.2848	-19.5556	-0.0270526
   267	1	-6.48736	-11.8879	-17.9809
   268	2	-5.47388	-11.9268	-17.5424
   269	2	-5.50418	-11.9461	-18.4818
   270	2	-6.92991	-10.9892	-17.5147
   271	2	 -6.9602	-11.0085	-18.4541
   272	2	-7.01286	-12.7187	-17.4765
   273	2	-7.04315	 -12.738	-18.4158
   274	1	 15.4331	-0.0307726	-12.8439
   275	2	 16.2347	-0.108961	-12.0874
   276	2	 16.5254	-0.124691	-12.9812
   277	2	 14.8896	0.882785	-12.5425
   278	2	 15.1803	0.867055	-13.4362
   279	2	 14.7389	-0.842547	-12.5611
   280	2	 15.0296	-0.858277	-13.4549
   281	1	 10.0998	-19.8834	-11.2492
   282	2	 10.4034	 19.4444	-10.4265
   283	2	 10.9261	 19.3843	-11.2054
   284	2	  10.084	-18.8881	-10.7695
   285	2	 10.6067	-18.9483	-11.5484
   286	2	 9.02808	 19.8838	-11.3833
   287	2	 9.55079	 19.8237	-12.1622
   288	1	-1.20859	-10.4667	 9.78413
   289	2	-0.252329	-10.2636	 9.26913
   290	2	-1.01248	 -10.262	 8.71616
   291	2	 -1.2193	-9.72161	    10.6
   292	2	-1.97945	-9.72002	  10.047
   293	2	-1.01391	-11.4172	 10.3127
   294	2	-1.77406	-11.4156	 9.75977
   295	1	-12.6386	 12.6182	-14.0952
   296	2	 -11.569	 12.6559	-13.8206
   297	2	-11.7477	  12.715	-14.7415
   298	2	-13.0863	 13.4174	-13.4773
   299	2	 -13.265	 13.4765	-14.3982
   300	2	-12.9925	 11.6927	-13.6063
   301	2	-13.1712	 11.7519	-14.5272
   302	1	-10.0555	0.713763	-18.0549
   303	2	-8.99491	0.988127	-17.9107
   304	2	 -9.1641	0.411665	-18.6337
   305	2	-10.5651	 1.69286	-18.1052
   306	2	-10.7343	  1.1164	-18.8282
   307	2	-10.3527	0.324995	-17.0642
   308	2	-10.5219	-0.251468	-17.7872
   309	1	-4.74354	 16.1866	-10.9291
   310	2	-3.72073	 16.4396	-10.5963
   311	2	-3.87228	 16.5215	-11.5204
   312	2	-5.38179	  16.823	-10.2899
   313	2	-5.53333	 16.9048	 -11.214
   314	2	-4.90078	 15.1744	-10.5149
   315	2	-5.05233	 15.2563	 -11.439
   316	1	    2.67	-17.3801	 17.0143
   317	2	 3.59771	-17.3577	 17.6141
   318	2	 3.72407	-17.3807	 16.6829
   319	2	 2.10489	-16.5083	 17.3905
   320	2	 2.23126	-16.5313	 16.4593
   321	2	 2.11784	-18.2397	  17.435
   322	2	 2.24421	-18.2627	 16.5038
   323	1	  19.116	 9.77184	-19.4056
   324	2	 19.8033	 9.62318	-18.5533
   325	2	-19.7924	 9.93115	 -19.344
   326	2	 18.3355	 10.4334	-18.9883
   327	2	 18.7399	 10.7413	 -19.779
   328	2	 18.6026	   8.797	-19.4891
   329	2	 19.0069	 9.10496	 19.7202
   330	1	 2.46229	-13.2659	 11.6703
   331	2	 3.15036	-12.4832	 12.0376
   332	2	 3.39943	-12.8855	 11.2253
   333	2	 1.48191	-12.7563	 11.6612
   334	2	 1.73098	-13.1586	  10.849
   335	2	 2.38101	-13.9547	 12.5304
   336	2	 2.63008	-14.3569	 11.7182
   337	1	 8.35399	 12.4986	 3.36783
   338	2	 9.18342	 12.3155	 4.07453
   339	2	  9.3969	 12.1936	 3.16724
   340	2	 8.01157	 13.5138	 3.63785
   341	2	 8.22504	  13.392	 2.73055
   342	2	 7.54678	 11.8493	 3.75206
   343	2	 7.76025	 11.7274	 2.84477
   344	1	  7.7556	 9.76769	-2.86197
   345	2	 8.57698	 9.52387	-2.16426
   346	2	 8.77505	 9.39829	-3.07453
   347	2	 7.48155	 10.7999	-2.57866
   348	2	 7.67962	 10.6743	-3.48893
   349	2	 6.91118	 9.16764	-2.47759
   350	2	 7.10925	 9.04206	-3.38786
   351	1	-13.3519	-10.7598	-2.41579
   352	2	-12.2715	-10.8036	-2.64327
   353	2	-12.8084	-10.4363	-3.32183
   354	2	-13.3851	-10.2254	-1.44924
   355	2	 -13.922	-9.85815	 -2.1278
   356	2	-13.5938	-11.8012	-2.13702
   357	2	-14.1307	 -11.434	-2.81558
   358	1	-16.3957	 13.3952	 12.7614
   359	2	-16.1311	 13.9287	 13.6921
   360	2	-15.4862	 13.9714	 13.0096
   361	2	-17.3838	 13.8157	 12.5014
   362	2	-16.7389	 13.8584	 11.8188
   363	2	-16.6396	  12.377	 13.1146
   364	2	-15.9947	 12.4197	 12.4321
   365	1	 3.57391	-9.55439	 2.60505
   366	2	 4.60506	-9.60361	 2.99902
   367	2	 4.53107	-9.66302	 2.06382
   368	2	  3.1778	-8.62366	 3.04969
   369	2	 3.10381	-8.68306	 2.11449
   370	2	 3.04985	-10.3468	 3.16926
   371	2	 2.97586	-10.4062	 2.23406
   372	1	-8.16385	-5.16391	-2.55527
   373	2	-7.46093	-6.00986	-2.44959
   374	2	-7.65128	-5.75632	-3.33451
   375	2	-7.70756	-4.37656	-1.92858
   376	2	-7.89792	-4.12302	 -2.8135
   377	2	-9.03753	-5.48562	-1.96025
   378	2	-9.22788	-5.23208	-2.84517
   379	1	 -1.8758	 2.35598	-18.7726
   380	2	-0.850121	 2.38037	-18.3624
   381	2	-0.906425	 2.40886	-19.3003
   382	2	-2.37825	 3.18738	-18.2461
   383	2	-2.43455	 3.21586	 -19.184
   384	2	-2.31457	 1.45747	-18.3025
   385	2	-2.37088	 1.48595	-19.2404
   386	1	-4.59546	-10.0046	 2.29182
   387	2	 -3.6022	-10.0252	 2.77547
   388	2	-3.58914	-10.0152	 1.83561
   389	2	-5.08847	-9.13591	 2.76432
   390	2	-5.07541	-9.12587	 1.82446
   391	2	-5.11528	-10.8676	 2.74545
   392	2	-5.10222	-10.8576	 1.80559
   393	1	 3.96207	 17.4052	 13.5305
   394	2	 4.59371	  17.759	 14.3651
   395	2	 5.02077	 17.7215	 13.5286
   396	2	 3.08211	 18.0716	 13.5795
   397	2	 3.50916	  18.034	 12.7429
   398	2	 3.56982	 16.4412	 13.9016
   399	2	 3.99687	 16.4036	  13.065
   400	1	 4.12652	 3.24189	 13.9404
   401	2	  4.8308	 3.50414	 14.7504
   402	2	 5.19506	 3.51746	 13.8839
   403	2	 3.28191	 3.93479	 14.1058
   404	2	 3.64616	 3.94811	 13.2394
   405	2	 3.72047	 2.26677	 14.2646
   406	2	 4.08472	 2.28009	 13.3981
   407	1	-19.1534	 1.88173	 4.62948
   408	2	-18.2484	 2.42707	 4.30635
   409	2	 -18.609	 1.83774	 3.66898
   410	2	-19.8311	 2.68985	 4.95886
   411	2	 19.8083	 2.10051	 4.32148
   412	2	-18.8398	 1.41228	 5.57928
   413	2	-19.2004	0.822945	 4.94191
   414	1	-1.65943	-13.5356	-12.9583
   415	2	-0.660282	-13.5272	-12.4866
   416	2	-0.658584	-13.5431	-13.4264
   417	2	-2.16065	 -12.662	-12.5039
   418	2	-2.15896	-12.6779	-13.4438
   419	2	-2.15991	-14.3937	-12.4746
   420	2	-2.15821	-14.4096	-13.4145
   421	1	 13.7754	-12.0466	-0.639164
   422	2	 14.7965	-12.4252	-0.452093
   423	2	 14.3864	-12.7501	-1.23305
   424	2	 13.9008	-10.9497	-0.595615
   425	2	 13.4907	-11.2746	-1.37658
   426	2	 13.2441	-12.2776	0.301656
   427	2	  12.834	-12.6025	-0.479304
   428	1	 13.9506	 7.43688	-19.4146
   429	2	 14.7446	 7.51383	-18.6501
   430	2	 15.0189	 7.69393	 -19.531
   431	2	 13.1585	 8.10089	-19.0239
   432	2	 13.4328	 8.28099	-19.9048
   433	2	 13.5371	 6.42577	-19.2485
   434	2	 13.8114	 6.60587	 19.8706
   435	1	-3.32406	 2.95493	 -1.7321
   436	2	-2.42089	 2.63928	-1.17934
   437	2	-2.54244	 2.22711	-2.01537
   438	2	-3.23147	 4.05562	-1.75977
   439	2	-3.35303	 3.64344	-2.59579
   440	2	 -4.1375	 2.78815	-1.00315
   441	2	-4.25905	 2.37598	-1.83917
   442	1	-16.2136	 10.0336	-6.45283
   443	2	-15.3456	 10.0398	-5.76923
   444	2	-15.1575	 10.2862	-6.65665
   445	2	-16.9491	 10.6738	-5.93314
   446	2	-16.7609	 10.9202	-6.82057
   447	2	-16.6285	 9.01748	-6.32499
   448	2	-16.4404	 9.26383	-7.21242
   449	1	 -11.762	 13.7073	-16.9166
   450	2	-10.6991	 13.7363	-16.6159
   451	2	-10.8522	 13.7254	-17.5433
   452	2	-12.2004	 14.5666	-16.3779
   453	2	-12.3534	 14.5558	-17.3053
   454	2	-12.1569	 12.8352	-16.3648
   455	2	-12.3099	 12.8244	-17.2922
   456	1	 6.22907	 10.1663	-8.24674
   457	2	 7.24462	 10.5751	  -8.097
   458	2	 6.75655	 10.9642	-8.79983
   459	2	 5.76895	 10.2602	-7.24658
   460	2	 5.28088	 10.6494	-7.94941
   461	2	 6.40574	 9.07975	-8.34238
   462	2	 5.91768	 9.46888	-9.04521
   463	1	-16.2624	-3.39603	-5.95146
   464	2	-15.7185	-2.61431	-5.39109
   465	2	-15.2501	-2.98517	-6.11679
   466	2	-17.2168	 -2.9033	-6.21055
   467	2	-16.7484	-3.27416	-6.93625
   468	2	-16.5545	 -4.1142	 -5.1642
   469	2	 -16.086	-4.48505	-5.88989
   470	1	-4.26324	 8.39792	 11.3947
   471	2	-3.32521	 8.51412	 11.9669
   472	2	-3.25607	 8.68939	  11.046
   473	2	 -4.9751	 9.04066	 11.9433
   474	2	-4.90596	 9.21593	 11.0224
   475	2	-4.59311	 7.37606	 11.6552
   476	2	-4.52397	 7.55133	 10.7342
   477	1	-9.70788	-12.8565	-4.63877
   478	2	-8.69456	-12.5928	-4.28582
   479	2	-8.76275	-12.7754	-5.20538
   480	2	-10.3274	 -12.015	-4.27949
   481	2	-10.3956	-12.1976	-5.19906
   482	2	-9.99944	-13.6876	-3.97165
   483	2	-10.0676	-13.8702	-4.89122
   484	1	0.304036	-2.09165	 9.45531
   485	2	 1.38235	-2.07792	 9.69606
   486	2	 1.16713	-1.84362	 8.81153
   487	2	-0.136857	-1.44327	 10.2338
   488	2	-0.352072	-1.20896	 9.34929
   489	2	-0.0105573	-3.10521	 9.76284
   490	2	-0.225773	 -2.8709	 8.87832
   491	1	 15.8284	-2.19018	-11.4725
   492	2	 16.7855	-1.92199	-10.9899
   493	2	 16.8177	-1.99966	-11.9262
   494	2	 15.1288	-1.42615	-11.0881
   495	2	 15.1611	-1.50381	-12.0243
   496	2	 15.5224	-3.10589	-10.9352
   497	2	 15.5546	-3.18356	-11.8715
   498	1	 14.6221	-1.39467	-7.31994
   499	2	  15.668	-1.41369	-6.96398
   500	2	  15.559	-1.52609	-7.89084
   501	2	  14.234	-0.443537	-6.91299
   502	2	  14.125	-0.555944	-7.83985
   503	2	 14.1278	-2.15817	-6.69255
   504	2	 14.0188	-2.27057	-7.61942
   505	1	-18.0322	-5.75302	-18.9894
   506	2	-17.5145	-6.24763	-18.1479
   507	2	-17.0195	-6.19279	-18.9451
   508	2	-18.3415	-4.78284	-18.5606
   509	2	-17.8465	-4.72799	-19.3578
   510	2	 -18.983	-6.31086	 -19.064
   511	2	-18.4881	-6.25602	-19.8612
   512	1	-9.70098	-9.27537	-17.2387
   513	2	-8.82468	-9.06064	-16.6008
   514	2	 -8.6887	-8.93525	-17.5224
   515	2	-10.4971	-8.65283	-16.7921
   516	2	-10.3611	-8.52744	-17.7137
   517	2	-9.98511	-10.3007	-16.9407
   518	2	-9.84913	-10.1753	-17.8623
   519	1	-14.7915	-9.47543	-1.68602
   520	2	-13.7735	-9.40138	-1.26295
   521	2	-13.8375	-9.22515	-2.18406
   522	2	-15.3841	-8.80566	-1.03707
   523	2	-15.4481	-8.62943	-1.95818
   524	2	 -15.121	-10.4836	-1.37638
   525	2	 -15.185	-10.3074	-2.29749
   526	1	-19.0227	 -7.7665	-3.86121
   527	2	-18.4389	-7.01743	-3.29648
   528	2	-18.0369	-7.32273	-4.08944
   529	2	 19.9955	 -7.2764	-3.99048
   530	2	-19.6025	 -7.5817	-4.78344
   531	2	-19.2277	-8.54773	-3.10721
   532	2	-18.8257	-8.85303	-3.90018
   533	1	 8.36424	-3.58329	-9.02821
   534	2	 9.17389	 -3.9748	-8.38626
   535	2	 9.45486	-3.60623	-9.20407
   536	2	 7.82568	-2.88779	-8.35956
   537	2	 8.10665	-2.51922	-9.17736
   538	2	 7.67169	-4.44015	-9.11209
   539	2	 7.95266	-4.07157	 -9.9299
   540	1	 13.7848	 4.32676	 11.7724
   541	2	 14.7998	 4.30029	  12.208
   542	2	 14.7685	  4.3677	  11.271
   543	2	 13.2965	 5.15319	 12.3196
   544	2	 13.2652	 5.22059	 11.3825
   545	2	 13.3049	 3.42569	  12.195
   546	2	 13.2736	 3.49309	  11.258
   547	1	-15.0996	 19.4832	 2.36346
   548	2	 -14.234	 19.2987	 3.02497
   549	2	-14.0204	  19.475	 2.12671
   550	2	-15.6474	-19.7102	 2.88331
   551	2	-15.4337	-19.5339	 1.98505
   552	2	-15.7379	 18.5967	 2.52949
   553	2	-15.5242	  18.773	 1.63123
   554	1	0.448346	-3.92927	-2.85011
   555	2	 1.44354	-3.87353	-2.37325
   556	2	 1.45142	-3.90298	-3.31276
   557	2	-0.0904687	 -3.0702	-2.41131
   558	2	-0.0825817	-3.09965	-3.35082
   559	2	-0.0198599	-4.79989	 -2.3565
   560	2	-0.0119729	-4.82934	  -3.296
   561	1	-4.14232	-11.6144	-7.99158
   562	2	-3.15016	-11.6035	-7.50538
   563	2	-3.13489	-11.6018	-8.44525
   564	2	-4.66012	-10.7553	-7.52833
   565	2	-4.64485	-10.7535	-8.46821
   566	2	-4.63959	-12.4872	 -7.5312
   567	2	-4.62433	-12.4854	-8.47108
   568	1	-12.6053	-3.55497	-3.50896
   569	2	-11.6154	-3.27729	-3.10405
   570	2	-11.8444	-2.86585	-3.91762
   571	2	-13.2901	-3.34587	-2.66745
   572	2	-13.5191	-2.93443	-3.48102
   573	2	-12.5669	-4.65892	-3.53501
   574	2	-12.7959	-4.24748	-4.34858
   575	1	 -17.598	 15.3315	 2.77086
   576	2	-16.7408	 15.7815	 3.30335
   577	2	-16.6578	  15.749	 2.36759
   578	2	-18.4609	 15.9105	 3.14636
   579	2	-18.3779	  15.878	 2.21059
   580	2	-17.7168	 14.3511	  3.2665
   581	2	-17.6338	 14.3186	 2.33074
   582	1	 4.58807	 18.7563	-10.8487
   583	2	 4.87499	 18.3057	-9.88148
   584	2	 5.59021	 18.5016	-10.4591
   585	2	 3.97338	 19.6246	-10.5504
   586	2	 4.68859	 19.8206	 -11.128
   587	2	 3.84301	 18.0446	-11.2478
   588	2	 4.55823	 18.2406	-11.8254
   589	1	 5.10247	-9.21063	  12.111
   590	2	 5.90452	-8.60961	 12.5762
   591	2	 6.11992	-8.98699	 11.7427
   592	2	  4.2401	-8.51988	 12.1055
   593	2	 4.45549	-8.89727	 11.2719
   594	2	 4.83971	-9.93632	 12.9017
   595	2	  5.0551	-10.3137	 12.0682
   596	1	-9.00819	 -4.8976	-8.46987
   597	2	-8.14364	 -4.8338	-7.78477
   598	2	-7.92805	-4.85872	-8.69938
   599	2	 -9.6402	-4.04626	-8.15899
   600	2	-9.42461	-4.07118	 -9.0736
   601	2	-9.56413	-5.77537	-8.09395
   602	2	-9.34855	-5.80029	-9.00856
   603	1	 8.29185	-10.1928	 17.5406
   604	2	  9.3589	-10.4174	  17.719
   605	2	    9.13	-10.2497	 16.8228
   606	2	 8.08794	-9.36286	  18.241
   607	2	 7.85903	-9.19515	 17.3448
   608	2	 7.77208	-11.0495	  18.006
   609	2	 7.54317	-10.8818	 17.1099
   610	1	-1.65103	-4.60627	-15.1066
   611	2	-0.937358	-3.78304	-14.9225
   612	2	-1.10022	-3.97612	 -15.828
   613	2	-2.53968	-4.30538	-14.5229
   614	2	-2.70254	-4.49846	-15.4284
   615	2	-1.23176	-5.44077	-14.5161
   616	2	-1.39462	-5.63385	-15.4215
   617	1	-12.2699	-9.08181	 7.22297
   618	2	-11.4451	-9.74959	  7.5308
   619	2	-11.7529	-9.87361	 6.65134
   620	2	-11.8751	-8.07398	 7.44504
   621	2	 -12.183	  -8.198	 6.56558
   622	2	-13.0276	-9.23585	 8.01228
   623	2	-13.3354	-9.35987	 7.13281
   624	1	  14.346	 11.4532	 18.1058
   625	2	 15.3217	 11.7064	 18.5581
   626	2	 15.3428	 11.5294	 17.6352
   627	2	 13.7007	 12.2977	 18.4078
   628	2	 13.7218	 12.1207	 17.4848
   629	2	 13.9839	 10.6208	 18.7358
   630	2	 14.0049	 10.4438	 17.8128
   631	1	 3.95746	-12.2653	  18.556
   632	2	 4.83987	-12.0024	 19.1668
   633	2	 4.91505	-11.8064	 18.2506
   634	2	 3.12761	-11.7566	 19.0789
   635	2	 3.20279	-11.5607	 18.1626
   636	2	 3.79212	 -13.331	 18.7967
   637	2	  3.8673	 -13.135	 17.8805
   638	1	-15.4416	 11.7498	-14.1292
   639	2	-14.4415	 11.7498	-13.6593
   640	2	-14.4416	 11.7498	-14.5993
   641	2	-15.9415	 12.6158	-13.6592
   642	2	-15.9416	 12.6158	-14.5992
   643	2	-15.9416	 10.8838	-13.6592
   644	2	-15.9417	 10.8838	-14.5992
   645	1	-7.15432	 2.54958	 10.6624
   646	2	-6.15338	 2.55074	 11.1304
   647	2	-6.15526	 2.54973	 10.1904
   648	2	-7.65394	 3.41576	 11.1325
   649	2	-7.65583	 3.41475	 10.1925
   650	2	-7.65281	 1.68376	 11.1343
   651	2	-7.65469	 1.68275	 10.1943
   652	1	  1.7386	-7.36847	-19.6312
   653	2	 2.82509	-7.50304	-19.4817
   654	2	 2.55195	-7.42003	 19.6227
   655	2	 1.49981	-6.50461	 -18.985
   656	2	 1.22667	-6.42159	-19.8806
   657	2	 1.30061	-8.22229	-19.0834
   658	2	 1.02748	-8.13928	 -19.979
   659	1	 17.6283	-3.09791	  15.921
   660	2	 18.3263	-3.70388	 16.5264
   661	2	 18.7325	-3.13129	 15.9013
   662	2	 17.0042	-2.59583	 16.6821
   663	2	 17.4104	-2.02325	  16.057
   664	2	  16.945	 -3.8529	 15.4921
   665	2	 17.3513	-3.28031	  14.867
   666	1	 15.8912	-15.6668	-4.15529
   667	2	 16.7717	-16.2785	-3.88792
   668	2	 16.7213	-16.0236	 -4.7913
   669	2	 15.9351	-14.8317	-3.43307
   670	2	 15.8847	-14.5768	-4.33646
   671	2	 15.0424	-16.2725	 -3.7898
   672	2	 14.9921	-16.0176	-4.69318
   673	1	 -14.793	-17.1491	-3.78483
   674	2	-14.0194	-17.5532	-3.10722
   675	2	-13.7768	-17.5171	-4.01466
   676	2	-15.0464	-16.1759	-3.32703
   677	2	-14.8038	-16.1398	-4.23448
   678	2	-15.6771	-17.7722	-3.55907
   679	2	-15.4345	-17.7361	-4.46651
   680	1	-7.81707	-2.84899	 11.3586
   681	2	-6.73612	 -2.7997	 11.5823
   682	2	-6.95463	-2.82338	 10.6683
   683	2	-8.23027	-1.99075	 11.9185
   684	2	-8.44878	-2.01443	 11.0046
   685	2	-8.15704	-3.72099	 11.9458
   686	2	-8.37554	-3.74466	 11.0319
   687	1	 15.2317	 3.73077	 15.1386
   688	2	 16.0343	  3.8332	 15.8911
   689	2	 16.3267	 3.77992	 14.9994
   690	2	 14.5639	 4.58164	 15.3642
   691	2	 14.8563	 4.52835	 14.4725
   692	2	 14.6583	 2.85741	 15.4982
   693	2	 14.9507	 2.80413	 14.6065
   694	1	-17.7349	-17.2691	 5.80911
   695	2	-16.6737	-17.5479	 5.67818
   696	2	-17.1522	-17.4101	 4.88091
   697	2	-17.6852	-16.3959	 6.48429
   698	2	-18.1637	-16.2581	 5.68702
   699	2	-18.1279	-18.0702	 6.46076
   700	2	-18.6065	-17.9324	 5.66349
   701	1	-12.4388	-15.3198	 7.67098
   702	2	-11.3975	-15.2484	 8.03364
   703	2	-11.4992	-15.2114	 7.09988
   704	2	-12.9571	-14.5215	 8.23219
   705	2	-13.0587	-14.4844	 7.29844
   706	2	-12.8094	-16.2451	 8.14776
   707	2	-12.9111	-16.2081	   7.214
   708	1	 10.2914	 18.5011	 0.59055
   709	2	 11.2101	 17.9188	0.396086
   710	2	 10.6237	 17.9964	-0.334492
   711	2	 10.6778	 19.4575	0.986797
   712	2	 10.0914	 19.5351	0.256218
   713	2	 9.86601	 18.0108	 1.48463
   714	2	 9.27964	 18.0884	0.754056
   715	1	-0.717121	 11.3752	-16.6952
   716	2	0.286428	 11.3216	-16.2359
   717	2	0.279221	 11.4449	-17.1678
   718	2	-1.21966	  12.168	-16.1123
   719	2	-1.22686	 12.2913	-17.0442
   720	2	-1.20732	  10.451	-16.3395
   721	2	-1.21453	 10.5743	-17.2714
   722	1	-11.8095	-10.8076	 7.85233
   723	2	-10.7167	-10.6453	 7.83557
   724	2	-11.1911	-10.2462	 7.12897
   725	2	-12.0996	-10.4693	 8.86341
   726	2	 -12.574	-10.0702	 8.15681
   727	2	-11.9007	-11.9068	 7.91791
   728	2	-12.3751	-11.5077	 7.21132
   729	1	-18.3305	  1.4962	 11.7308
   730	2	-17.5898	 1.95626	 12.4094
   731	2	-17.4755	 2.15627	 11.4981
   732	2	-19.2979	 1.80954	  12.163
   733	2	-19.1836	 2.00954	 11.2516
   734	2	-18.2753	0.422794	 11.9869
   735	2	-18.1609	0.622803	 11.0756
   736	1	 2.02643	-3.72995	 19.0157
   737	2	 2.65912	-4.38158	  19.645
   738	2	 2.95599	-4.26984	 18.7601
   739	2	 1.95387	-2.80005	 19.6081
   740	2	 2.25074	-2.68832	 18.7232
   741	2	   1.021	-4.17581	 19.1214
   742	2	 1.31787	-4.06408	 18.2365
   743	1	-19.1828	 2.29088	-6.19053
   744	2	-18.2208	 2.64715	-5.77994
   745	2	-18.1948	 2.37242	-6.67852
   746	2	-19.8743	 3.12499	 -5.9739
   747	2	-19.8483	 2.85026	-6.87248
   748	2	-19.4923	 1.51259	-5.46987
   749	2	-19.4663	 1.23786	-6.36845
   750	1	-14.2699	 8.03722	-11.6829
   751	2	-13.2249	  8.0569	-11.3246
   752	2	-13.3581	 8.40412	-12.1879
   753	2	-14.8228	 8.55411	-10.8779
   754	2	 -14.956	 8.90133	-11.7412
   755	2	-14.5622	 6.97981	-11.5513
   756	2	-14.6954	 7.32703	-12.4146
   757	1	 -9.7357	-7.97159	 -17.682
   758	2	-8.63579	-8.07676	-17.6892
   759	2	-9.00079	-7.64219	-18.4385
   760	2	-9.93642	 -7.4832	-16.7114
   761	2	-10.3014	-7.04862	-17.4608
   762	2	-10.0874	-9.00667	-17.5214
   763	2	-10.4524	-8.57209	-18.2708
   764	1	-14.1394	 14.8246	 19.8104
   765	2	 -13.104	 14.7557	-19.8099
   766	2	 -13.182	 14.8736	 19.2608
   767	2	-14.5808	 15.6298	-19.5751
   768	2	-14.6588	 15.7477	 19.4956
   769	2	-14.6163	 13.9116	  -19.79
   770	2	-14.6943	 14.0294	 19.2807
   771	1	-16.1091	 12.7489	 4.05762
   772	2	 -15.471	 12.7392	 4.95966
   773	2	-15.0694	  12.396	 4.18216
   774	2	-16.4372	 13.8019	 3.99153
   775	2	-16.0356	 13.4587	 3.21402
   776	2	-17.0215	 12.2203	 4.38791
   777	2	-16.6199	 11.8771	 3.61041
   778	1	 2.03224	-12.9346	   8.832
   779	2	 2.95349	-12.7353	 9.40861
   780	2	 2.88467	-12.2735	 8.59278
   781	2	 1.22813	-12.7247	 9.56016
   782	2	  1.1593	-12.2629	 8.74433
   783	2	 2.01834	-14.0365	 8.75096
   784	2	 1.94952	-13.5746	 7.93513
   785	1	-12.6171	-0.751948	 3.21325
   786	2	-12.0286	-0.306697	 4.03561
   787	2	-11.5222	-0.651829	 3.32283
   788	2	-13.3221	0.054399	 2.94181
   789	2	-12.8157	-0.290732	 2.22903
   790	2	-13.2603	-1.48585	 3.73151
   791	2	-12.7539	-1.83098	 3.01873
   792	1	0.671571	 12.4918	 15.4782
   793	2	 1.74307	   12.66	 15.2672
   794	2	 1.17647	 12.7035	 14.5184
   795	2	 0.45326	 13.2244	  16.276
   796	2	-0.113342	  13.268	 15.5272
   797	2	0.668284	 11.5258	 16.0146
   798	2	0.101682	 11.5694	 15.2658
   799	1	 16.3865	-9.43547	0.202365
   800	2	 16.7164	-9.64675	 1.23554
   801	2	 17.4063	-9.58701	0.599885
   802	2	  15.771	-8.52479	0.314958
   803	2	 16.4609	-8.46505	-0.320701
   804	2	 15.6373	-10.2245	0.0100803
   805	2	 16.3272	-10.1648	-0.625578
   806	1	-6.29428	0.630066	 1.41875
   807	2	-5.28175	0.205832	 1.54415
   808	2	  -5.652	0.109761	0.685495
   809	2	-6.17616	 1.67243	 1.76572
   810	2	 -6.5464	 1.57636	0.907062
   811	2	-6.86955	0.156046	 2.23436
   812	2	-7.23979	0.059975	 1.37571
   813	1	 17.4268	 1.67549	 6.51287
   814	2	 18.4946	 1.88317	 6.31876
   815	2	 18.0047	 1.57989	 5.57599
   816	2	 17.0639	 2.61736	 6.96239
   817	2	 16.5741	 2.31409	 6.21962
   818	2	 17.4566	0.980858	 7.37162
   819	2	 16.9668	0.677584	 6.62885
   820	1	-11.2837	 7.77107	 13.7095
   821	2	-10.8875	 8.38652	 14.5373
   822	2	-10.4274	 8.46926	 13.7218
   823	2	-12.3523	 8.04981	 13.6766
   824	2	-11.8922	 8.13256	 12.8611
   825	2	-11.3014	 6.75274	  14.138
   826	2	-10.8412	 6.83549	 13.3225
   827	1	-10.9675	-14.7354	-19.6092